# vtk DataFile Version 2.0
half_c_field
ASCII
DATASET UNSTRUCTURED_GRID
POINTS 100 float
-300.0 0 -300.0
-300.0 0 -233.33333333333331
-300.0 0 -166.66666666666666
-300.0 0 -100.0
-300.0 0 -33.333333333333314
-300.0 0 33.33333333333337
-300.0 0 100.0
-300.0 0 166.66666666666669
-300.0 0 233.33333333333337
-300.0 0 300.0
-233.33333333333331 0 -300.0
-233.33333333333331 0 -233.33333333333331
-233.33333333333331 0 -166.66666666666666
-233.33333333333331 0 -100.0
-233.33333333333331 0 -33.333333333333314
-233.33333333333331 0 33.33333333333337
-233.33333333333331 0 100.0
-233.33333333333331 0 166.66666666666669
-233.33333333333331 0 233.33333333333337
-233.33333333333331 0 300.0
-166.66666666666666 0 -300.0
-166.66666666666666 0 -233.33333333333331
-166.66666666666666 0 -166.66666666666666
-166.66666666666666 0 -100.0
-166.66666666666666 0 -33.333333333333314
-166.66666666666666 0 33.33333333333337
-166.66666666666666 0 100.0
-166.66666666666666 0 166.66666666666669
-166.66666666666666 0 233.33333333333337
-166.66666666666666 0 300.0
-100.0 0 -300.0
-100.0 0 -233.33333333333331
-100.0 0 -166.66666666666666
-100.0 0 -100.0
-100.0 0 -33.333333333333314
-100.0 0 33.33333333333337
-100.0 0 100.0
-100.0 0 166.66666666666669
-100.0 0 233.33333333333337
-100.0 0 300.0
-33.333333333333314 0 -300.0
-33.333333333333314 0 -233.33333333333331
-33.333333333333314 0 -166.66666666666666
-33.333333333333314 0 -100.0
-33.333333333333314 0 -33.333333333333314
-33.333333333333314 0 33.33333333333337
-33.333333333333314 0 100.0
-33.333333333333314 0 166.66666666666669
-33.333333333333314 0 233.33333333333337
-33.333333333333314 0 300.0
33.33333333333337 0 -300.0
33.33333333333337 0 -233.33333333333331
33.33333333333337 0 -166.66666666666666
33.33333333333337 0 -100.0
33.33333333333337 0 -33.333333333333314
33.33333333333337 0 33.33333333333337
33.33333333333337 0 100.0
33.33333333333337 0 166.66666666666669
33.33333333333337 0 233.33333333333337
33.33333333333337 0 300.0
100.0 0 -300.0
100.0 0 -233.33333333333331
100.0 0 -166.66666666666666
100.0 0 -100.0
100.0 0 -33.333333333333314
100.0 0 33.33333333333337
100.0 0 100.0
100.0 0 166.66666666666669
100.0 0 233.33333333333337
100.0 0 300.0
166.66666666666669 0 -300.0
166.66666666666669 0 -233.33333333333331
166.66666666666669 0 -166.66666666666666
166.66666666666669 0 -100.0
166.66666666666669 0 -33.333333333333314
166.66666666666669 0 33.33333333333337
166.66666666666669 0 100.0
166.66666666666669 0 166.66666666666669
166.66666666666669 0 233.33333333333337
166.66666666666669 0 300.0
233.33333333333337 0 -300.0
233.33333333333337 0 -233.33333333333331
233.33333333333337 0 -166.66666666666666
233.33333333333337 0 -100.0
233.33333333333337 0 -33.333333333333314
233.33333333333337 0 33.33333333333337
233.33333333333337 0 100.0
233.33333333333337 0 166.66666666666669
233.33333333333337 0 233.33333333333337
233.33333333333337 0 300.0
300.0 0 -300.0
300.0 0 -233.33333333333331
300.0 0 -166.66666666666666
300.0 0 -100.0
300.0 0 -33.333333333333314
300.0 0 33.33333333333337
300.0 0 100.0
300.0 0 166.66666666666669
300.0 0 233.33333333333337
300.0 0 300.0
POINT_DATA 100
VECTORS test float
0.5 0.0 0.0
0.5 0.0 0.0
0.5 0.0 0.0
0.5 0.0 0.0
0.5 0.0 0.0
0.5 0.0 0.0
0.5 0.0 0.0
0.5 0.0 0.0
0.5 0.0 0.0
0.5 0.0 0.0
0.5 0.0 0.0
0.5 0.0 0.0
0.5 0.0 0.0
0.5 0.0 0.0
0.5 0.0 0.0
0.5 0.0 0.0
0.5 0.0 0.0
0.5 0.0 0.0
0.5 0.0 0.0
0.5 0.0 0.0
0.5 0.0 0.0
0.5 0.0 0.0
0.5 0.0 0.0
0.5 0.0 0.0
0.5 0.0 0.0
0.5 0.0 0.0
0.5 0.0 0.0
0.5 0.0 0.0
0.5 0.0 0.0
0.5 0.0 0.0
0.5 0.0 0.0
0.5 0.0 0.0
0.5 0.0 0.0
0.5 0.0 0.0
0.5 0.0 0.0
0.5 0.0 0.0
0.5 0.0 0.0
0.5 0.0 0.0
0.5 0.0 0.0
0.5 0.0 0.0
0.5 0.0 0.0
0.5 0.0 0.0
0.5 0.0 0.0
0.5 0.0 0.0
0.5 0.0 0.0
0.5 0.0 0.0
0.5 0.0 0.0
0.5 0.0 0.0
0.5 0.0 0.0
0.5 0.0 0.0
0.5 0.0 0.0
0.5 0.0 0.0
0.5 0.0 0.0
0.5 0.0 0.0
0.5 0.0 0.0
0.5 0.0 0.0
0.5 0.0 0.0
0.5 0.0 0.0
0.5 0.0 0.0
0.5 0.0 0.0
0.5 0.0 0.0
0.5 0.0 0.0
0.5 0.0 0.0
0.5 0.0 0.0
0.5 0.0 0.0
0.5 0.0 0.0
0.5 0.0 0.0
0.5 0.0 0.0
0.5 0.0 0.0
0.5 0.0 0.0
0.5 0.0 0.0
0.5 0.0 0.0
0.5 0.0 0.0
0.5 0.0 0.0
0.5 0.0 0.0
0.5 0.0 0.0
0.5 0.0 0.0
0.5 0.0 0.0
0.5 0.0 0.0
0.5 0.0 0.0
0.5 0.0 0.0
0.5 0.0 0.0
0.5 0.0 0.0
0.5 0.0 0.0
0.5 0.0 0.0
0.5 0.0 0.0
0.5 0.0 0.0
0.5 0.0 0.0
0.5 0.0 0.0
0.5 0.0 0.0
0.5 0.0 0.0
0.5 0.0 0.0
0.5 0.0 0.0
0.5 0.0 0.0
0.5 0.0 0.0
0.5 0.0 0.0
0.5 0.0 0.0
0.5 0.0 0.0
0.5 0.0 0.0
0.5 0.0 0.0
